+ 0 /NodeList/0/DeviceList/0/$ns3::PointToPointNetDevice/TxQueue/Enqueue ns3::PppHeader (Point-to-Point Protocol: IP (0x0021)) ns3::Ipv4Header (tos 0x0 DSCP Default ECN Not-ECT ttl 64 id 0 protocol 6 offset (bytes) 0 flags [none] length: 56 10.1.1.1 > 10.1.1.2) ns3::TcpHeader (49153 > 9 [SYN] Seq=0 Ack=0 Win=65535 ns3::TcpOptionTS(0;0) ns3::TcpOptionWinScale(2) ns3::TcpOptionSackPermitted([sack_perm]) ns3::TcpOptionEnd(EOL))
- 0 /NodeList/0/DeviceList/0/$ns3::PointToPointNetDevice/TxQueue/Dequeue ns3::PppHeader (Point-to-Point Protocol: IP (0x0021)) ns3::Ipv4Header (tos 0x0 DSCP Default ECN Not-ECT ttl 64 id 0 protocol 6 offset (bytes) 0 flags [none] length: 56 10.1.1.1 > 10.1.1.2) ns3::TcpHeader (49153 > 9 [SYN] Seq=0 Ack=0 Win=65535 ns3::TcpOptionTS(0;0) ns3::TcpOptionWinScale(2) ns3::TcpOptionSackPermitted([sack_perm]) ns3::TcpOptionEnd(EOL))
r 0.005928 /NodeList/1/DeviceList/0/$ns3::PointToPointNetDevice/MacRx ns3::PppHeader (Point-to-Point Protocol: IP (0x0021)) ns3::Ipv4Header (tos 0x0 DSCP Default ECN Not-ECT ttl 64 id 0 protocol 6 offset (bytes) 0 flags [none] length: 56 10.1.1.1 > 10.1.1.2) ns3::TcpHeader (49153 > 9 [SYN] Seq=0 Ack=0 Win=65535 ns3::TcpOptionTS(0;0) ns3::TcpOptionWinScale(2) ns3::TcpOptionSackPermitted([sack_perm]) ns3::TcpOptionEnd(EOL))
+ 0.005928 /NodeList/1/DeviceList/0/$ns3::PointToPointNetDevice/TxQueue/Enqueue ns3::PppHeader (Point-to-Point Protocol: IP (0x0021)) ns3::Ipv4Header (tos 0x0 DSCP Default ECN Not-ECT ttl 64 id 0 protocol 6 offset (bytes) 0 flags [none] length: 56 10.1.1.2 > 10.1.1.1) ns3::TcpHeader (9 > 49153 [SYN|ACK] Seq=0 Ack=1 Win=65535 ns3::TcpOptionTS(5;0) ns3::TcpOptionWinScale(2) ns3::TcpOptionSackPermitted([sack_perm]) ns3::TcpOptionEnd(EOL))
- 0.005928 /NodeList/1/DeviceList/0/$ns3::PointToPointNetDevice/TxQueue/Dequeue ns3::PppHeader (Point-to-Point Protocol: IP (0x0021)) ns3::Ipv4Header (tos 0x0 DSCP Default ECN Not-ECT ttl 64 id 0 protocol 6 offset (bytes) 0 flags [none] length: 56 10.1.1.2 > 10.1.1.1) ns3::TcpHeader (9 > 49153 [SYN|ACK] Seq=0 Ack=1 Win=65535 ns3::TcpOptionTS(5;0) ns3::TcpOptionWinScale(2) ns3::TcpOptionSackPermitted([sack_perm]) ns3::TcpOptionEnd(EOL))
r 0.011856 /NodeList/0/DeviceList/0/$ns3::PointToPointNetDevice/MacRx ns3::PppHeader (Point-to-Point Protocol: IP (0x0021)) ns3::Ipv4Header (tos 0x0 DSCP Default ECN Not-ECT ttl 64 id 0 protocol 6 offset (bytes) 0 flags [none] length: 56 10.1.1.2 > 10.1.1.1) ns3::TcpHeader (9 > 49153 [SYN|ACK] Seq=0 Ack=1 Win=65535 ns3::TcpOptionTS(5;0) ns3::TcpOptionWinScale(2) ns3::TcpOptionSackPermitted([sack_perm]) ns3::TcpOptionEnd(EOL))
+ 0.011856 /NodeList/0/DeviceList/0/$ns3::PointToPointNetDevice/TxQueue/Enqueue ns3::PppHeader (Point-to-Point Protocol: IP (0x0021)) ns3::Ipv4Header (tos 0x0 DSCP Default ECN Not-ECT ttl 64 id 1 protocol 6 offset (bytes) 0 flags [none] length: 52 10.1.1.1 > 10.1.1.2) ns3::TcpHeader (49153 > 9 [ACK] Seq=1 Ack=1 Win=32768 ns3::TcpOptionTS(11;5) ns3::TcpOptionEnd(EOL))
- 0.011856 /NodeList/0/DeviceList/0/$ns3::PointToPointNetDevice/TxQueue/Dequeue ns3::PppHeader (Point-to-Point Protocol: IP (0x0021)) ns3::Ipv4Header (tos 0x0 DSCP Default ECN Not-ECT ttl 64 id 1 protocol 6 offset (bytes) 0 flags [none] length: 52 10.1.1.1 > 10.1.1.2) ns3::TcpHeader (49153 > 9 [ACK] Seq=1 Ack=1 Win=32768 ns3::TcpOptionTS(11;5) ns3::TcpOptionEnd(EOL))
+ 0.011856 /NodeList/0/DeviceList/0/$ns3::PointToPointNetDevice/TxQueue/Enqueue ns3::PppHeader (Point-to-Point Protocol: IP (0x0021)) ns3::Ipv4Header (tos 0x0 DSCP Default ECN Not-ECT ttl 64 id 2 protocol 6 offset (bytes) 0 flags [none] length: 588 10.1.1.1 > 10.1.1.2) ns3::TcpHeader (49153 > 9 [ACK] Seq=1 Ack=1 Win=32768 ns3::TcpOptionTS(11;5) ns3::TcpOptionEnd(EOL)) Payload (size=512) Payload Fragment [0:24]
+ 0.011856 /NodeList/0/DeviceList/0/$ns3::PointToPointNetDevice/TxQueue/Enqueue ns3::PppHeader (Point-to-Point Protocol: IP (0x0021)) ns3::Ipv4Header (tos 0x0 DSCP Default ECN Not-ECT ttl 64 id 3 protocol 6 offset (bytes) 0 flags [none] length: 588 10.1.1.1 > 10.1.1.2) ns3::TcpHeader (49153 > 9 [ACK] Seq=537 Ack=1 Win=32768 ns3::TcpOptionTS(11;5) ns3::TcpOptionEnd(EOL)) Payload Fragment [24:512] Payload Fragment [0:48]
+ 0.011856 /NodeList/0/DeviceList/0/$ns3::PointToPointNetDevice/TxQueue/Enqueue ns3::PppHeader (Point-to-Point Protocol: IP (0x0021)) ns3::Ipv4Header (tos 0x0 DSCP Default ECN Not-ECT ttl 64 id 4 protocol 6 offset (bytes) 0 flags [none] length: 588 10.1.1.1 > 10.1.1.2) ns3::TcpHeader (49153 > 9 [ACK] Seq=1073 Ack=1 Win=32768 ns3::TcpOptionTS(11;5) ns3::TcpOptionEnd(EOL)) Payload Fragment [48:512] Payload Fragment [0:72]
+ 0.011856 /NodeList/0/DeviceList/0/$ns3::PointToPointNetDevice/TxQueue/Enqueue ns3::PppHeader (Point-to-Point Protocol: IP (0x0021)) ns3::Ipv4Header (tos 0x0 DSCP Default ECN Not-ECT ttl 64 id 5 protocol 6 offset (bytes) 0 flags [none] length: 588 10.1.1.1 > 10.1.1.2) ns3::TcpHeader (49153 > 9 [ACK] Seq=1609 Ack=1 Win=32768 ns3::TcpOptionTS(11;5) ns3::TcpOptionEnd(EOL)) Payload Fragment [72:512] Payload Fragment [0:96]
+ 0.011856 /NodeList/0/DeviceList/0/$ns3::PointToPointNetDevice/TxQueue/Enqueue ns3::PppHeader (Point-to-Point Protocol: IP (0x0021)) ns3::Ipv4Header (tos 0x0 DSCP Default ECN Not-ECT ttl 64 id 6 protocol 6 offset (bytes) 0 flags [none] length: 588 10.1.1.1 > 10.1.1.2) ns3::TcpHeader (49153 > 9 [ACK] Seq=2145 Ack=1 Win=32768 ns3::TcpOptionTS(11;5) ns3::TcpOptionEnd(EOL)) Payload Fragment [96:512] Payload Fragment [0:120]
+ 0.011856 /NodeList/0/DeviceList/0/$ns3::PointToPointNetDevice/TxQueue/Enqueue ns3::PppHeader (Point-to-Point Protocol: IP (0x0021)) ns3::Ipv4Header (tos 0x0 DSCP Default ECN Not-ECT ttl 64 id 7 protocol 6 offset (bytes) 0 flags [none] length: 588 10.1.1.1 > 10.1.1.2) ns3::TcpHeader (49153 > 9 [ACK] Seq=2681 Ack=1 Win=32768 ns3::TcpOptionTS(11;5) ns3::TcpOptionEnd(EOL)) Payload Fragment [120:512] Payload Fragment [0:144]
+ 0.011856 /NodeList/0/DeviceList/0/$ns3::PointToPointNetDevice/TxQueue/Enqueue ns3::PppHeader (Point-to-Point Protocol: IP (0x0021)) ns3::Ipv4Header (tos 0x0 DSCP Default ECN Not-ECT ttl 64 id 8 protocol 6 offset (bytes) 0 flags [none] length: 588 10.1.1.1 > 10.1.1.2) ns3::TcpHeader (49153 > 9 [ACK] Seq=3217 Ack=1 Win=32768 ns3::TcpOptionTS(11;5) ns3::TcpOptionEnd(EOL)) Payload Fragment [144:512] Payload Fragment [0:168]
+ 0.011856 /NodeList/0/DeviceList/0/$ns3::PointToPointNetDevice/TxQueue/Enqueue ns3::PppHeader (Point-to-Point Protocol: IP (0x0021)) ns3::Ipv4Header (tos 0x0 DSCP Default ECN Not-ECT ttl 64 id 9 protocol 6 offset (bytes) 0 flags [none] length: 588 10.1.1.1 > 10.1.1.2) ns3::TcpHeader (49153 > 9 [ACK] Seq=3753 Ack=1 Win=32768 ns3::TcpOptionTS(11;5) ns3::TcpOptionEnd(EOL)) Payload Fragment [168:512] Payload Fragment [0:192]
+ 0.011856 /NodeList/0/DeviceList/0/$ns3::PointToPointNetDevice/TxQueue/Enqueue ns3::PppHeader (Point-to-Point Protocol: IP (0x0021)) ns3::Ipv4Header (tos 0x0 DSCP Default ECN Not-ECT ttl 64 id 10 protocol 6 offset (bytes) 0 flags [none] length: 588 10.1.1.1 > 10.1.1.2) ns3::TcpHeader (49153 > 9 [ACK] Seq=4289 Ack=1 Win=32768 ns3::TcpOptionTS(11;5) ns3::TcpOptionEnd(EOL)) Payload Fragment [192:512] Payload Fragment [0:216]
+ 0.011856 /NodeList/0/DeviceList/0/$ns3::PointToPointNetDevice/TxQueue/Enqueue ns3::PppHeader (Point-to-Point Protocol: IP (0x0021)) ns3::Ipv4Header (tos 0x0 DSCP Default ECN Not-ECT ttl 64 id 11 protocol 6 offset (bytes) 0 flags [none] length: 588 10.1.1.1 > 10.1.1.2) ns3::TcpHeader (49153 > 9 [ACK] Seq=4825 Ack=1 Win=32768 ns3::TcpOptionTS(11;5) ns3::TcpOptionEnd(EOL)) Payload Fragment [216:512] Payload Fragment [0:240]
- 0.01272 /NodeList/0/DeviceList/0/$ns3::PointToPointNetDevice/TxQueue/Dequeue ns3::PppHeader (Point-to-Point Protocol: IP (0x0021)) ns3::Ipv4Header (tos 0x0 DSCP Default ECN Not-ECT ttl 64 id 2 protocol 6 offset (bytes) 0 flags [none] length: 588 10.1.1.1 > 10.1.1.2) ns3::TcpHeader (49153 > 9 [ACK] Seq=1 Ack=1 Win=32768 ns3::TcpOptionTS(11;5) ns3::TcpOptionEnd(EOL)) Payload (size=512) Payload Fragment [0:24]
r 0.01772 /NodeList/1/DeviceList/0/$ns3::PointToPointNetDevice/MacRx ns3::PppHeader (Point-to-Point Protocol: IP (0x0021)) ns3::Ipv4Header (tos 0x0 DSCP Default ECN Not-ECT ttl 64 id 1 protocol 6 offset (bytes) 0 flags [none] length: 52 10.1.1.1 > 10.1.1.2) ns3::TcpHeader (49153 > 9 [ACK] Seq=1 Ack=1 Win=32768 ns3::TcpOptionTS(11;5) ns3::TcpOptionEnd(EOL))
- 0.02216 /NodeList/0/DeviceList/0/$ns3::PointToPointNetDevice/TxQueue/Dequeue ns3::PppHeader (Point-to-Point Protocol: IP (0x0021)) ns3::Ipv4Header (tos 0x0 DSCP Default ECN Not-ECT ttl 64 id 3 protocol 6 offset (bytes) 0 flags [none] length: 588 10.1.1.1 > 10.1.1.2) ns3::TcpHeader (49153 > 9 [ACK] Seq=537 Ack=1 Win=32768 ns3::TcpOptionTS(11;5) ns3::TcpOptionEnd(EOL)) Payload Fragment [24:512] Payload Fragment [0:48]
r 0.02716 /NodeList/1/DeviceList/0/$ns3::PointToPointNetDevice/MacRx ns3::PppHeader (Point-to-Point Protocol: IP (0x0021)) ns3::Ipv4Header (tos 0x0 DSCP Default ECN Not-ECT ttl 64 id 2 protocol 6 offset (bytes) 0 flags [none] length: 588 10.1.1.1 > 10.1.1.2) ns3::TcpHeader (49153 > 9 [ACK] Seq=1 Ack=1 Win=32768 ns3::TcpOptionTS(11;5) ns3::TcpOptionEnd(EOL)) Payload (size=512) Payload Fragment [0:24]
+ 0.02716 /NodeList/1/DeviceList/0/$ns3::PointToPointNetDevice/TxQueue/Enqueue ns3::PppHeader (Point-to-Point Protocol: IP (0x0021)) ns3::Ipv4Header (tos 0x0 DSCP Default ECN Not-ECT ttl 64 id 1 protocol 6 offset (bytes) 0 flags [none] length: 52 10.1.1.2 > 10.1.1.1) ns3::TcpHeader (9 > 49153 [ACK] Seq=1 Ack=537 Win=32768 ns3::TcpOptionTS(27;11) ns3::TcpOptionEnd(EOL))
- 0.02716 /NodeList/1/DeviceList/0/$ns3::PointToPointNetDevice/TxQueue/Dequeue ns3::PppHeader (Point-to-Point Protocol: IP (0x0021)) ns3::Ipv4Header (tos 0x0 DSCP Default ECN Not-ECT ttl 64 id 1 protocol 6 offset (bytes) 0 flags [none] length: 52 10.1.1.2 > 10.1.1.1) ns3::TcpHeader (9 > 49153 [ACK] Seq=1 Ack=537 Win=32768 ns3::TcpOptionTS(27;11) ns3::TcpOptionEnd(EOL))
- 0.0316 /NodeList/0/DeviceList/0/$ns3::PointToPointNetDevice/TxQueue/Dequeue ns3::PppHeader (Point-to-Point Protocol: IP (0x0021)) ns3::Ipv4Header (tos 0x0 DSCP Default ECN Not-ECT ttl 64 id 4 protocol 6 offset (bytes) 0 flags [none] length: 588 10.1.1.1 > 10.1.1.2) ns3::TcpHeader (49153 > 9 [ACK] Seq=1073 Ack=1 Win=32768 ns3::TcpOptionTS(11;5) ns3::TcpOptionEnd(EOL)) Payload Fragment [48:512] Payload Fragment [0:72]
r 0.033024 /NodeList/0/DeviceList/0/$ns3::PointToPointNetDevice/MacRx ns3::PppHeader (Point-to-Point Protocol: IP (0x0021)) ns3::Ipv4Header (tos 0x0 DSCP Default ECN Not-ECT ttl 64 id 1 protocol 6 offset (bytes) 0 flags [none] length: 52 10.1.1.2 > 10.1.1.1) ns3::TcpHeader (9 > 49153 [ACK] Seq=1 Ack=537 Win=32768 ns3::TcpOptionTS(27;11) ns3::TcpOptionEnd(EOL))
+ 0.033024 /NodeList/0/DeviceList/0/$ns3::PointToPointNetDevice/TxQueue/Enqueue ns3::PppHeader (Point-to-Point Protocol: IP (0x0021)) ns3::Ipv4Header (tos 0x0 DSCP Default ECN Not-ECT ttl 64 id 12 protocol 6 offset (bytes) 0 flags [none] length: 588 10.1.1.1 > 10.1.1.2) ns3::TcpHeader (49153 > 9 [ACK] Seq=5361 Ack=1 Win=32768 ns3::TcpOptionTS(33;27) ns3::TcpOptionEnd(EOL)) Payload Fragment [240:512] Payload Fragment [0:264]
+ 0.033024 /NodeList/0/DeviceList/0/$ns3::PointToPointNetDevice/TxQueue/Enqueue ns3::PppHeader (Point-to-Point Protocol: IP (0x0021)) ns3::Ipv4Header (tos 0x0 DSCP Default ECN Not-ECT ttl 64 id 13 protocol 6 offset (bytes) 0 flags [none] length: 588 10.1.1.1 > 10.1.1.2) ns3::TcpHeader (49153 > 9 [ACK] Seq=5897 Ack=1 Win=32768 ns3::TcpOptionTS(33;27) ns3::TcpOptionEnd(EOL)) Payload Fragment [264:512] Payload Fragment [0:288]
r 0.0366 /NodeList/1/DeviceList/0/$ns3::PointToPointNetDevice/MacRx ns3::PppHeader (Point-to-Point Protocol: IP (0x0021)) ns3::Ipv4Header (tos 0x0 DSCP Default ECN Not-ECT ttl 64 id 3 protocol 6 offset (bytes) 0 flags [none] length: 588 10.1.1.1 > 10.1.1.2) ns3::TcpHeader (49153 > 9 [ACK] Seq=537 Ack=1 Win=32768 ns3::TcpOptionTS(11;5) ns3::TcpOptionEnd(EOL)) Payload Fragment [24:512] Payload Fragment [0:48]
- 0.04104 /NodeList/0/DeviceList/0/$ns3::PointToPointNetDevice/TxQueue/Dequeue ns3::PppHeader (Point-to-Point Protocol: IP (0x0021)) ns3::Ipv4Header (tos 0x0 DSCP Default ECN Not-ECT ttl 64 id 5 protocol 6 offset (bytes) 0 flags [none] length: 588 10.1.1.1 > 10.1.1.2) ns3::TcpHeader (49153 > 9 [ACK] Seq=1609 Ack=1 Win=32768 ns3::TcpOptionTS(11;5) ns3::TcpOptionEnd(EOL)) Payload Fragment [72:512] Payload Fragment [0:96]
r 0.04604 /NodeList/1/DeviceList/0/$ns3::PointToPointNetDevice/MacRx ns3::PppHeader (Point-to-Point Protocol: IP (0x0021)) ns3::Ipv4Header (tos 0x0 DSCP Default ECN Not-ECT ttl 64 id 4 protocol 6 offset (bytes) 0 flags [none] length: 588 10.1.1.1 > 10.1.1.2) ns3::TcpHeader (49153 > 9 [ACK] Seq=1073 Ack=1 Win=32768 ns3::TcpOptionTS(11;5) ns3::TcpOptionEnd(EOL)) Payload Fragment [48:512] Payload Fragment [0:72]
+ 0.04604 /NodeList/1/DeviceList/0/$ns3::PointToPointNetDevice/TxQueue/Enqueue ns3::PppHeader (Point-to-Point Protocol: IP (0x0021)) ns3::Ipv4Header (tos 0x0 DSCP Default ECN Not-ECT ttl 64 id 2 protocol 6 offset (bytes) 0 flags [none] length: 52 10.1.1.2 > 10.1.1.1) ns3::TcpHeader (9 > 49153 [ACK] Seq=1 Ack=1609 Win=32768 ns3::TcpOptionTS(46;11) ns3::TcpOptionEnd(EOL))
- 0.04604 /NodeList/1/DeviceList/0/$ns3::PointToPointNetDevice/TxQueue/Dequeue ns3::PppHeader (Point-to-Point Protocol: IP (0x0021)) ns3::Ipv4Header (tos 0x0 DSCP Default ECN Not-ECT ttl 64 id 2 protocol 6 offset (bytes) 0 flags [none] length: 52 10.1.1.2 > 10.1.1.1) ns3::TcpHeader (9 > 49153 [ACK] Seq=1 Ack=1609 Win=32768 ns3::TcpOptionTS(46;11) ns3::TcpOptionEnd(EOL))
- 0.05048 /NodeList/0/DeviceList/0/$ns3::PointToPointNetDevice/TxQueue/Dequeue ns3::PppHeader (Point-to-Point Protocol: IP (0x0021)) ns3::Ipv4Header (tos 0x0 DSCP Default ECN Not-ECT ttl 64 id 6 protocol 6 offset (bytes) 0 flags [none] length: 588 10.1.1.1 > 10.1.1.2) ns3::TcpHeader (49153 > 9 [ACK] Seq=2145 Ack=1 Win=32768 ns3::TcpOptionTS(11;5) ns3::TcpOptionEnd(EOL)) Payload Fragment [96:512] Payload Fragment [0:120]
r 0.051904 /NodeList/0/DeviceList/0/$ns3::PointToPointNetDevice/MacRx ns3::PppHeader (Point-to-Point Protocol: IP (0x0021)) ns3::Ipv4Header (tos 0x0 DSCP Default ECN Not-ECT ttl 64 id 2 protocol 6 offset (bytes) 0 flags [none] length: 52 10.1.1.2 > 10.1.1.1) ns3::TcpHeader (9 > 49153 [ACK] Seq=1 Ack=1609 Win=32768 ns3::TcpOptionTS(46;11) ns3::TcpOptionEnd(EOL))
+ 0.051904 /NodeList/0/DeviceList/0/$ns3::PointToPointNetDevice/TxQueue/Enqueue ns3::PppHeader (Point-to-Point Protocol: IP (0x0021)) ns3::Ipv4Header (tos 0x0 DSCP Default ECN Not-ECT ttl 64 id 14 protocol 6 offset (bytes) 0 flags [none] length: 588 10.1.1.1 > 10.1.1.2) ns3::TcpHeader (49153 > 9 [ACK] Seq=6433 Ack=1 Win=32768 ns3::TcpOptionTS(51;46) ns3::TcpOptionEnd(EOL)) Payload Fragment [288:512] Payload Fragment [0:312]
+ 0.051904 /NodeList/0/DeviceList/0/$ns3::PointToPointNetDevice/TxQueue/Enqueue ns3::PppHeader (Point-to-Point Protocol: IP (0x0021)) ns3::Ipv4Header (tos 0x0 DSCP Default ECN Not-ECT ttl 64 id 15 protocol 6 offset (bytes) 0 flags [none] length: 588 10.1.1.1 > 10.1.1.2) ns3::TcpHeader (49153 > 9 [ACK] Seq=6969 Ack=1 Win=32768 ns3::TcpOptionTS(51;46) ns3::TcpOptionEnd(EOL)) Payload Fragment [312:512] Payload Fragment [0:336]
+ 0.051904 /NodeList/0/DeviceList/0/$ns3::PointToPointNetDevice/TxQueue/Enqueue ns3::PppHeader (Point-to-Point Protocol: IP (0x0021)) ns3::Ipv4Header (tos 0x0 DSCP Default ECN Not-ECT ttl 64 id 16 protocol 6 offset (bytes) 0 flags [none] length: 588 10.1.1.1 > 10.1.1.2) ns3::TcpHeader (49153 > 9 [ACK] Seq=7505 Ack=1 Win=32768 ns3::TcpOptionTS(51;46) ns3::TcpOptionEnd(EOL)) Payload Fragment [336:512] Payload Fragment [0:360]
+ 0.051904 /NodeList/0/DeviceList/0/$ns3::PointToPointNetDevice/TxQueue/Enqueue ns3::PppHeader (Point-to-Point Protocol: IP (0x0021)) ns3::Ipv4Header (tos 0x0 DSCP Default ECN Not-ECT ttl 64 id 17 protocol 6 offset (bytes) 0 flags [none] length: 588 10.1.1.1 > 10.1.1.2) ns3::TcpHeader (49153 > 9 [ACK] Seq=8041 Ack=1 Win=32768 ns3::TcpOptionTS(51;46) ns3::TcpOptionEnd(EOL)) Payload Fragment [360:512] Payload Fragment [0:384]
r 0.05548 /NodeList/1/DeviceList/0/$ns3::PointToPointNetDevice/MacRx ns3::PppHeader (Point-to-Point Protocol: IP (0x0021)) ns3::Ipv4Header (tos 0x0 DSCP Default ECN Not-ECT ttl 64 id 5 protocol 6 offset (bytes) 0 flags [none] length: 588 10.1.1.1 > 10.1.1.2) ns3::TcpHeader (49153 > 9 [ACK] Seq=1609 Ack=1 Win=32768 ns3::TcpOptionTS(11;5) ns3::TcpOptionEnd(EOL)) Payload Fragment [72:512] Payload Fragment [0:96]
- 0.05992 /NodeList/0/DeviceList/0/$ns3::PointToPointNetDevice/TxQueue/Dequeue ns3::PppHeader (Point-to-Point Protocol: IP (0x0021)) ns3::Ipv4Header (tos 0x0 DSCP Default ECN Not-ECT ttl 64 id 7 protocol 6 offset (bytes) 0 flags [none] length: 588 10.1.1.1 > 10.1.1.2) ns3::TcpHeader (49153 > 9 [ACK] Seq=2681 Ack=1 Win=32768 ns3::TcpOptionTS(11;5) ns3::TcpOptionEnd(EOL)) Payload Fragment [120:512] Payload Fragment [0:144]
r 0.06492 /NodeList/1/DeviceList/0/$ns3::PointToPointNetDevice/MacRx ns3::PppHeader (Point-to-Point Protocol: IP (0x0021)) ns3::Ipv4Header (tos 0x0 DSCP Default ECN Not-ECT ttl 64 id 6 protocol 6 offset (bytes) 0 flags [none] length: 588 10.1.1.1 > 10.1.1.2) ns3::TcpHeader (49153 > 9 [ACK] Seq=2145 Ack=1 Win=32768 ns3::TcpOptionTS(11;5) ns3::TcpOptionEnd(EOL)) Payload Fragment [96:512] Payload Fragment [0:120]
+ 0.06492 /NodeList/1/DeviceList/0/$ns3::PointToPointNetDevice/TxQueue/Enqueue ns3::PppHeader (Point-to-Point Protocol: IP (0x0021)) ns3::Ipv4Header (tos 0x0 DSCP Default ECN Not-ECT ttl 64 id 3 protocol 6 offset (bytes) 0 flags [none] length: 52 10.1.1.2 > 10.1.1.1) ns3::TcpHeader (9 > 49153 [ACK] Seq=1 Ack=2681 Win=32768 ns3::TcpOptionTS(64;11) ns3::TcpOptionEnd(EOL))
- 0.06492 /NodeList/1/DeviceList/0/$ns3::PointToPointNetDevice/TxQueue/Dequeue ns3::PppHeader (Point-to-Point Protocol: IP (0x0021)) ns3::Ipv4Header (tos 0x0 DSCP Default ECN Not-ECT ttl 64 id 3 protocol 6 offset (bytes) 0 flags [none] length: 52 10.1.1.2 > 10.1.1.1) ns3::TcpHeader (9 > 49153 [ACK] Seq=1 Ack=2681 Win=32768 ns3::TcpOptionTS(64;11) ns3::TcpOptionEnd(EOL))
- 0.06936 /NodeList/0/DeviceList/0/$ns3::PointToPointNetDevice/TxQueue/Dequeue ns3::PppHeader (Point-to-Point Protocol: IP (0x0021)) ns3::Ipv4Header (tos 0x0 DSCP Default ECN Not-ECT ttl 64 id 8 protocol 6 offset (bytes) 0 flags [none] length: 588 10.1.1.1 > 10.1.1.2) ns3::TcpHeader (49153 > 9 [ACK] Seq=3217 Ack=1 Win=32768 ns3::TcpOptionTS(11;5) ns3::TcpOptionEnd(EOL)) Payload Fragment [144:512] Payload Fragment [0:168]
r 0.070784 /NodeList/0/DeviceList/0/$ns3::PointToPointNetDevice/MacRx ns3::PppHeader (Point-to-Point Protocol: IP (0x0021)) ns3::Ipv4Header (tos 0x0 DSCP Default ECN Not-ECT ttl 64 id 3 protocol 6 offset (bytes) 0 flags [none] length: 52 10.1.1.2 > 10.1.1.1) ns3::TcpHeader (9 > 49153 [ACK] Seq=1 Ack=2681 Win=32768 ns3::TcpOptionTS(64;11) ns3::TcpOptionEnd(EOL))
+ 0.070784 /NodeList/0/DeviceList/0/$ns3::PointToPointNetDevice/TxQueue/Enqueue ns3::PppHeader (Point-to-Point Protocol: IP (0x0021)) ns3::Ipv4Header (tos 0x0 DSCP Default ECN Not-ECT ttl 64 id 18 protocol 6 offset (bytes) 0 flags [none] length: 588 10.1.1.1 > 10.1.1.2) ns3::TcpHeader (49153 > 9 [ACK] Seq=8577 Ack=1 Win=32768 ns3::TcpOptionTS(70;64) ns3::TcpOptionEnd(EOL)) Payload Fragment [384:512] Payload Fragment [0:408]
+ 0.070784 /NodeList/0/DeviceList/0/$ns3::PointToPointNetDevice/TxQueue/Enqueue ns3::PppHeader (Point-to-Point Protocol: IP (0x0021)) ns3::Ipv4Header (tos 0x0 DSCP Default ECN Not-ECT ttl 64 id 19 protocol 6 offset (bytes) 0 flags [none] length: 588 10.1.1.1 > 10.1.1.2) ns3::TcpHeader (49153 > 9 [ACK] Seq=9113 Ack=1 Win=32768 ns3::TcpOptionTS(70;64) ns3::TcpOptionEnd(EOL)) Payload Fragment [408:512] Payload Fragment [0:432]
+ 0.070784 /NodeList/0/DeviceList/0/$ns3::PointToPointNetDevice/TxQueue/Enqueue ns3::PppHeader (Point-to-Point Protocol: IP (0x0021)) ns3::Ipv4Header (tos 0x0 DSCP Default ECN Not-ECT ttl 64 id 20 protocol 6 offset (bytes) 0 flags [none] length: 588 10.1.1.1 > 10.1.1.2) ns3::TcpHeader (49153 > 9 [ACK] Seq=9649 Ack=1 Win=32768 ns3::TcpOptionTS(70;64) ns3::TcpOptionEnd(EOL)) Payload Fragment [432:512] Payload Fragment [0:456]
+ 0.070784 /NodeList/0/DeviceList/0/$ns3::PointToPointNetDevice/TxQueue/Enqueue ns3::PppHeader (Point-to-Point Protocol: IP (0x0021)) ns3::Ipv4Header (tos 0x0 DSCP Default ECN Not-ECT ttl 64 id 21 protocol 6 offset (bytes) 0 flags [none] length: 588 10.1.1.1 > 10.1.1.2) ns3::TcpHeader (49153 > 9 [ACK] Seq=10185 Ack=1 Win=32768 ns3::TcpOptionTS(70;64) ns3::TcpOptionEnd(EOL)) Payload Fragment [456:512] Payload Fragment [0:480]
r 0.07436 /NodeList/1/DeviceList/0/$ns3::PointToPointNetDevice/MacRx ns3::PppHeader (Point-to-Point Protocol: IP (0x0021)) ns3::Ipv4Header (tos 0x0 DSCP Default ECN Not-ECT ttl 64 id 7 protocol 6 offset (bytes) 0 flags [none] length: 588 10.1.1.1 > 10.1.1.2) ns3::TcpHeader (49153 > 9 [ACK] Seq=2681 Ack=1 Win=32768 ns3::TcpOptionTS(11;5) ns3::TcpOptionEnd(EOL)) Payload Fragment [120:512] Payload Fragment [0:144]
- 0.0788 /NodeList/0/DeviceList/0/$ns3::PointToPointNetDevice/TxQueue/Dequeue ns3::PppHeader (Point-to-Point Protocol: IP (0x0021)) ns3::Ipv4Header (tos 0x0 DSCP Default ECN Not-ECT ttl 64 id 9 protocol 6 offset (bytes) 0 flags [none] length: 588 10.1.1.1 > 10.1.1.2) ns3::TcpHeader (49153 > 9 [ACK] Seq=3753 Ack=1 Win=32768 ns3::TcpOptionTS(11;5) ns3::TcpOptionEnd(EOL)) Payload Fragment [168:512] Payload Fragment [0:192]
r 0.0838 /NodeList/1/DeviceList/0/$ns3::PointToPointNetDevice/MacRx ns3::PppHeader (Point-to-Point Protocol: IP (0x0021)) ns3::Ipv4Header (tos 0x0 DSCP Default ECN Not-ECT ttl 64 id 8 protocol 6 offset (bytes) 0 flags [none] length: 588 10.1.1.1 > 10.1.1.2) ns3::TcpHeader (49153 > 9 [ACK] Seq=3217 Ack=1 Win=32768 ns3::TcpOptionTS(11;5) ns3::TcpOptionEnd(EOL)) Payload Fragment [144:512] Payload Fragment [0:168]
+ 0.0838 /NodeList/1/DeviceList/0/$ns3::PointToPointNetDevice/TxQueue/Enqueue ns3::PppHeader (Point-to-Point Protocol: IP (0x0021)) ns3::Ipv4Header (tos 0x0 DSCP Default ECN Not-ECT ttl 64 id 4 protocol 6 offset (bytes) 0 flags [none] length: 52 10.1.1.2 > 10.1.1.1) ns3::TcpHeader (9 > 49153 [ACK] Seq=1 Ack=3753 Win=32768 ns3::TcpOptionTS(83;11) ns3::TcpOptionEnd(EOL))
- 0.0838 /NodeList/1/DeviceList/0/$ns3::PointToPointNetDevice/TxQueue/Dequeue ns3::PppHeader (Point-to-Point Protocol: IP (0x0021)) ns3::Ipv4Header (tos 0x0 DSCP Default ECN Not-ECT ttl 64 id 4 protocol 6 offset (bytes) 0 flags [none] length: 52 10.1.1.2 > 10.1.1.1) ns3::TcpHeader (9 > 49153 [ACK] Seq=1 Ack=3753 Win=32768 ns3::TcpOptionTS(83;11) ns3::TcpOptionEnd(EOL))
- 0.08824 /NodeList/0/DeviceList/0/$ns3::PointToPointNetDevice/TxQueue/Dequeue ns3::PppHeader (Point-to-Point Protocol: IP (0x0021)) ns3::Ipv4Header (tos 0x0 DSCP Default ECN Not-ECT ttl 64 id 10 protocol 6 offset (bytes) 0 flags [none] length: 588 10.1.1.1 > 10.1.1.2) ns3::TcpHeader (49153 > 9 [ACK] Seq=4289 Ack=1 Win=32768 ns3::TcpOptionTS(11;5) ns3::TcpOptionEnd(EOL)) Payload Fragment [192:512] Payload Fragment [0:216]
r 0.089664 /NodeList/0/DeviceList/0/$ns3::PointToPointNetDevice/MacRx ns3::PppHeader (Point-to-Point Protocol: IP (0x0021)) ns3::Ipv4Header (tos 0x0 DSCP Default ECN Not-ECT ttl 64 id 4 protocol 6 offset (bytes) 0 flags [none] length: 52 10.1.1.2 > 10.1.1.1) ns3::TcpHeader (9 > 49153 [ACK] Seq=1 Ack=3753 Win=32768 ns3::TcpOptionTS(83;11) ns3::TcpOptionEnd(EOL))
+ 0.089664 /NodeList/0/DeviceList/0/$ns3::PointToPointNetDevice/TxQueue/Enqueue ns3::PppHeader (Point-to-Point Protocol: IP (0x0021)) ns3::Ipv4Header (tos 0x0 DSCP Default ECN Not-ECT ttl 64 id 22 protocol 6 offset (bytes) 0 flags [none] length: 588 10.1.1.1 > 10.1.1.2) ns3::TcpHeader (49153 > 9 [ACK] Seq=10721 Ack=1 Win=32768 ns3::TcpOptionTS(89;83) ns3::TcpOptionEnd(EOL)) Payload Fragment [480:512] Payload Fragment [0:504]
+ 0.089664 /NodeList/0/DeviceList/0/$ns3::PointToPointNetDevice/TxQueue/Enqueue ns3::PppHeader (Point-to-Point Protocol: IP (0x0021)) ns3::Ipv4Header (tos 0x0 DSCP Default ECN Not-ECT ttl 64 id 23 protocol 6 offset (bytes) 0 flags [none] length: 588 10.1.1.1 > 10.1.1.2) ns3::TcpHeader (49153 > 9 [ACK] Seq=11257 Ack=1 Win=32768 ns3::TcpOptionTS(89;83) ns3::TcpOptionEnd(EOL)) Payload Fragment [504:512] Payload (size=512) Payload Fragment [0:16]
+ 0.089664 /NodeList/0/DeviceList/0/$ns3::PointToPointNetDevice/TxQueue/Enqueue ns3::PppHeader (Point-to-Point Protocol: IP (0x0021)) ns3::Ipv4Header (tos 0x0 DSCP Default ECN Not-ECT ttl 64 id 24 protocol 6 offset (bytes) 0 flags [none] length: 588 10.1.1.1 > 10.1.1.2) ns3::TcpHeader (49153 > 9 [ACK] Seq=11793 Ack=1 Win=32768 ns3::TcpOptionTS(89;83) ns3::TcpOptionEnd(EOL)) Payload Fragment [16:512] Payload Fragment [0:40]
+ 0.089664 /NodeList/0/DeviceList/0/$ns3::PointToPointNetDevice/TxQueue/Enqueue ns3::PppHeader (Point-to-Point Protocol: IP (0x0021)) ns3::Ipv4Header (tos 0x0 DSCP Default ECN Not-ECT ttl 64 id 25 protocol 6 offset (bytes) 0 flags [none] length: 588 10.1.1.1 > 10.1.1.2) ns3::TcpHeader (49153 > 9 [ACK] Seq=12329 Ack=1 Win=32768 ns3::TcpOptionTS(89;83) ns3::TcpOptionEnd(EOL)) Payload Fragment [40:512] Payload Fragment [0:64]
r 0.09324 /NodeList/1/DeviceList/0/$ns3::PointToPointNetDevice/MacRx ns3::PppHeader (Point-to-Point Protocol: IP (0x0021)) ns3::Ipv4Header (tos 0x0 DSCP Default ECN Not-ECT ttl 64 id 9 protocol 6 offset (bytes) 0 flags [none] length: 588 10.1.1.1 > 10.1.1.2) ns3::TcpHeader (49153 > 9 [ACK] Seq=3753 Ack=1 Win=32768 ns3::TcpOptionTS(11;5) ns3::TcpOptionEnd(EOL)) Payload Fragment [168:512] Payload Fragment [0:192]
- 0.09768 /NodeList/0/DeviceList/0/$ns3::PointToPointNetDevice/TxQueue/Dequeue ns3::PppHeader (Point-to-Point Protocol: IP (0x0021)) ns3::Ipv4Header (tos 0x0 DSCP Default ECN Not-ECT ttl 64 id 11 protocol 6 offset (bytes) 0 flags [none] length: 588 10.1.1.1 > 10.1.1.2) ns3::TcpHeader (49153 > 9 [ACK] Seq=4825 Ack=1 Win=32768 ns3::TcpOptionTS(11;5) ns3::TcpOptionEnd(EOL)) Payload Fragment [216:512] Payload Fragment [0:240]
r 0.10268 /NodeList/1/DeviceList/0/$ns3::PointToPointNetDevice/MacRx ns3::PppHeader (Point-to-Point Protocol: IP (0x0021)) ns3::Ipv4Header (tos 0x0 DSCP Default ECN Not-ECT ttl 64 id 10 protocol 6 offset (bytes) 0 flags [none] length: 588 10.1.1.1 > 10.1.1.2) ns3::TcpHeader (49153 > 9 [ACK] Seq=4289 Ack=1 Win=32768 ns3::TcpOptionTS(11;5) ns3::TcpOptionEnd(EOL)) Payload Fragment [192:512] Payload Fragment [0:216]
+ 0.10268 /NodeList/1/DeviceList/0/$ns3::PointToPointNetDevice/TxQueue/Enqueue ns3::PppHeader (Point-to-Point Protocol: IP (0x0021)) ns3::Ipv4Header (tos 0x0 DSCP Default ECN Not-ECT ttl 64 id 5 protocol 6 offset (bytes) 0 flags [none] length: 52 10.1.1.2 > 10.1.1.1) ns3::TcpHeader (9 > 49153 [ACK] Seq=1 Ack=4825 Win=32768 ns3::TcpOptionTS(102;11) ns3::TcpOptionEnd(EOL))
- 0.10268 /NodeList/1/DeviceList/0/$ns3::PointToPointNetDevice/TxQueue/Dequeue ns3::PppHeader (Point-to-Point Protocol: IP (0x0021)) ns3::Ipv4Header (tos 0x0 DSCP Default ECN Not-ECT ttl 64 id 5 protocol 6 offset (bytes) 0 flags [none] length: 52 10.1.1.2 > 10.1.1.1) ns3::TcpHeader (9 > 49153 [ACK] Seq=1 Ack=4825 Win=32768 ns3::TcpOptionTS(102;11) ns3::TcpOptionEnd(EOL))
- 0.10712 /NodeList/0/DeviceList/0/$ns3::PointToPointNetDevice/TxQueue/Dequeue ns3::PppHeader (Point-to-Point Protocol: IP (0x0021)) ns3::Ipv4Header (tos 0x0 DSCP Default ECN Not-ECT ttl 64 id 12 protocol 6 offset (bytes) 0 flags [none] length: 588 10.1.1.1 > 10.1.1.2) ns3::TcpHeader (49153 > 9 [ACK] Seq=5361 Ack=1 Win=32768 ns3::TcpOptionTS(33;27) ns3::TcpOptionEnd(EOL)) Payload Fragment [240:512] Payload Fragment [0:264]
r 0.108544 /NodeList/0/DeviceList/0/$ns3::PointToPointNetDevice/MacRx ns3::PppHeader (Point-to-Point Protocol: IP (0x0021)) ns3::Ipv4Header (tos 0x0 DSCP Default ECN Not-ECT ttl 64 id 5 protocol 6 offset (bytes) 0 flags [none] length: 52 10.1.1.2 > 10.1.1.1) ns3::TcpHeader (9 > 49153 [ACK] Seq=1 Ack=4825 Win=32768 ns3::TcpOptionTS(102;11) ns3::TcpOptionEnd(EOL))
+ 0.108544 /NodeList/0/DeviceList/0/$ns3::PointToPointNetDevice/TxQueue/Enqueue ns3::PppHeader (Point-to-Point Protocol: IP (0x0021)) ns3::Ipv4Header (tos 0x0 DSCP Default ECN Not-ECT ttl 64 id 26 protocol 6 offset (bytes) 0 flags [none] length: 588 10.1.1.1 > 10.1.1.2) ns3::TcpHeader (49153 > 9 [ACK] Seq=12865 Ack=1 Win=32768 ns3::TcpOptionTS(108;102) ns3::TcpOptionEnd(EOL)) Payload Fragment [64:512] Payload Fragment [0:88]
+ 0.108544 /NodeList/0/DeviceList/0/$ns3::PointToPointNetDevice/TxQueue/Enqueue ns3::PppHeader (Point-to-Point Protocol: IP (0x0021)) ns3::Ipv4Header (tos 0x0 DSCP Default ECN Not-ECT ttl 64 id 27 protocol 6 offset (bytes) 0 flags [none] length: 588 10.1.1.1 > 10.1.1.2) ns3::TcpHeader (49153 > 9 [ACK] Seq=13401 Ack=1 Win=32768 ns3::TcpOptionTS(108;102) ns3::TcpOptionEnd(EOL)) Payload Fragment [88:512] Payload Fragment [0:112]
+ 0.108544 /NodeList/0/DeviceList/0/$ns3::PointToPointNetDevice/TxQueue/Enqueue ns3::PppHeader (Point-to-Point Protocol: IP (0x0021)) ns3::Ipv4Header (tos 0x0 DSCP Default ECN Not-ECT ttl 64 id 28 protocol 6 offset (bytes) 0 flags [none] length: 588 10.1.1.1 > 10.1.1.2) ns3::TcpHeader (49153 > 9 [ACK] Seq=13937 Ack=1 Win=32768 ns3::TcpOptionTS(108;102) ns3::TcpOptionEnd(EOL)) Payload Fragment [112:512] Payload Fragment [0:136]
+ 0.108544 /NodeList/0/DeviceList/0/$ns3::PointToPointNetDevice/TxQueue/Enqueue ns3::PppHeader (Point-to-Point Protocol: IP (0x0021)) ns3::Ipv4Header (tos 0x0 DSCP Default ECN Not-ECT ttl 64 id 29 protocol 6 offset (bytes) 0 flags [none] length: 588 10.1.1.1 > 10.1.1.2) ns3::TcpHeader (49153 > 9 [ACK] Seq=14473 Ack=1 Win=32768 ns3::TcpOptionTS(108;102) ns3::TcpOptionEnd(EOL)) Payload Fragment [136:512] Payload Fragment [0:160]